ITEM: UNITS
real
ITEM: TIME
0
ITEM: TIMESTEP
0
ITEM: NUMBER OF ATOMS
50
ITEM: BOX BOUNDS xy xz yz pp pp pp
0.000000000000e+00 6.268320083618e+01 2.089440107346e+01
0.000000000000e+00 5.909830093384e+01 -2.089440107346e+01
0.000000000000e+00 5.118060112000e+01 2.954910039902e+01
ITEM: ATOMS id xu yu zu type mass q
1 17.5 34.5 26.7 1 0 0
2 15 33.7 25.2 1 0 0
3 19.5 33.8 24.4 1 0 0
4 19.7 30.6 25.4 1 0 0
5 16.6 29.7 27.5 1 0 0
6 19.8 36.7 23.3 1 0 0
7 21 35.7 20.9 1 0 0
8 20.9 38.1 25.8 1 0 0
9 19.6 37.9 28.2 1 0 0
10 23.7 36.7 25.9 1 0 0
11 23.9 33.5 25.6 1 0 0
12 23.3 31.6 22.6 1 0 0
13 24.7 38 23.3 1 0 0
14 24.9 35.6 22.1 1 0 0
15 24.3 40.9 24.4 1 0 0
16 26.3 40.5 26.7 1 0 0
17 23.6 41 29 1 0 0
18 28.8 40.6 24.9 1 0 0
19 29.3 37 23.4 1 0 0
20 28.9 43.6 24.2 1 0 0
21 29 42.5 28.7 1 0 0
22 26.1 44.1 29 1 0 0
23 28.3 45.2 30.6 1 0 0
24 30.3 45.2 26.5 1 0 0
25 32.5 42.6 23.1 1 0 0
26 33.3 44.4 26.3 1 0 0
27 33.7 44.6 29.2 1 0 0
28 33.8 46.4 23.9 1 0 0
29 33.8 48.7 25.9 1 0 0
30 33.5 49.1 29.2 1 0 0
31 33.5 52.7 30.2 1 0 0
32 36.6 47.6 26.9 1 0 0
33 38.6 45.8 28.1 1 0 0
34 38.2 48.3 24.4 1 0 0
35 35.5 50.4 22.9 1 0 0
36 34.4 52.6 24.9 1 0 0
37 35.6 53.4 22.7 1 0 0
38 38.4 51.3 25 1 0 0
39 39.4 51.7 21.9 1 0 0
40 42.1 49.3 21.1 1 0 0
41 40.3 50.9 27.5 1 0 0
42 37.8 51.3 30.1 1 0 0
43 42.7 49.7 26 1 0 0
44 43 46.2 25.5 1 0 0
45 43.6 52.2 24.4 1 0 0
46 41.1 54.8 24.1 1 0 0
47 41.5 57.6 26.7 1 0 0
48 44.5 54 26.8 1 0 0
49 46.7 55.5 24.9 1 0 0
50 48 58.4 23.3 1 0 0
ITEM: UNITS
real
ITEM: TIME
100000
ITEM: TIMESTEP
5000
ITEM: NUMBER OF ATOMS
50
ITEM: BOX BOUNDS xy xz yz pp pp pp
0.000000000000e+00 6.266602993011e+01 2.088867664337e+01
0.000000000000e+00 5.908211231232e+01 -2.088867664337e+01
0.000000000000e+00 5.110604286194e+01 2.954100608826e+01
ITEM: ATOMS id xu yu zu type mass q
1 24.1 49.4 13 1 0 0
2 22.1 47 12.6 1 0 0
3 24.2 50.8 15.8 1 0 0
4 25.7 52.9 15.3 1 0 0
5 27.3 52.5 18.8 1 0 0
6 23.4 48.6 17.8 1 0 0
7 23.8 50.3 19.8 1 0 0
8 25.2 46.2 17 1 0 0
9 23.7 44 16.2 1 0 0
10 28 47.5 17.6 1 0 0
11 28.2 47.6 14 1 0 0
12 29.4 48.2 10.4 1 0 0
13 27.1 47.8 20.6 1 0 0
14 28 49.2 22.8 1 0 0
15 26.4 44.9 21.2 1 0 0
16 29.3 43.8 20.9 1 0 0
17 29.6 40.5 19.8 1 0 0
18 30.5 45.7 23.1 1 0 0
19 34.1 46.2 21.6 1 0 0
20 29 44.7 25.5 1 0 0
21 25.3 45.6 25.6 1 0 0
22 23.1 43.8 23.7 1 0 0
23 25.2 42.3 24.9 1 0 0
24 29.9 41.7 25.5 1 0 0
25 28 39 24.3 1 0 0
26 32.9 42.3 25.4 1 0 0
27 35.7 41.7 25.9 1 0 0
28 32.9 44.3 27.8 1 0 0
29 32.1 42.3 30 1 0 0
30 29.1 42 30.2 1 0 0
31 26.9 43.1 32.8 1 0 0
32 34.2 40.1 29.7 1 0 0
33 33.6 37.7 28.2 1 0 0
34 37 41.5 30.1 1 0 0
35 36.9 44.6 28.9 1 0 0
36 38.1 47 27.2 1 0 0
37 38.7 46.9 29.8 1 0 0
38 36.4 42.5 32.9 1 0 0
39 35.3 45.8 32.1 1 0 0
40 34.1 48.2 29.8 1 0 0
41 35.8 39.8 34.3 1 0 0
42 32.8 38.1 33.7 1 0 0
43 38.4 38.1 33.9 1 0 0
44 39.5 37.8 30.1 1 0 0
45 40.4 40.2 35 1 0 0
46 42.2 41 32.3 1 0 0
47 41.2 44.7 32.2 1 0 0
48 39.2 40.6 37.8 1 0 0
49 38.3 43.9 37.8 1 0 0
50 34.9 42.8 39.2 1 0 0
ITEM: UNITS
real
ITEM: TIME
200000
ITEM: TIMESTEP
10000
ITEM: NUMBER OF ATOMS
50
ITEM: BOX BOUNDS xy xz yz pp pp pp
0.000000000000e+00 6.260797023773e+01 2.086932420731e+01
0.000000000000e+00 5.902737140656e+01 -2.086932420731e+01
0.000000000000e+00 5.107748508453e+01 2.951363563538e+01
ITEM: ATOMS id xu yu zu type mass q
1 33 57.5 17.9 1 0 0
2 34.8 57.3 20.4 1 0 0
3 30.5 56.1 19.1 1 0 0
4 30.6 57.4 22.2 1 0 0
5 30.6 55 24.8 1 0 0
6 30.6 53.5 17.5 1 0 0
7 30.7 55 15 1 0 0
8 33.3 52.4 18.6 1 0 0
9 33.8 49.9 17.5 1 0 0
10 32.7 52.3 21.6 1 0 0
11 35.3 51.9 23.2 1 0 0
12 36.7 49.9 25.7 1 0 0
13 30.3 50.4 21.4 1 0 0
14 27.9 49.9 22.7 1 0 0
15 31.7 48 20 1 0 0
16 34 47.8 22.1 1 0 0
17 37.1 49.6 20.6 1 0 0
18 32.2 47.2 24.6 1 0 0
19 32.3 50.6 26.4 1 0 0
20 30.4 45 23.5 1 0 0
21 27.7 45.6 25.3 1 0 0
22 27.3 44.2 28.4 1 0 0
23 25.6 43.1 26.3 1 0 0
24 32.5 42.9 23 1 0 0
25 34.1 44.1 20.1 1 0 0
26 33.2 42.9 26 1 0 0
27 36.1 43 25.3 1 0 0
28 30.3 42.1 26.8 1 0 0
29 30.1 39.4 25.4 1 0 0
30 29 40.1 22.5 1 0 0
31 28.6 42.7 19.7 1 0 0
32 32.6 38.2 26.8 1 0 0
33 35.4 38.7 26.1 1 0 0
34 31.9 38.6 29.8 1 0 0
35 32.8 41.8 30.8 1 0 0
36 30.6 43.6 32.3 1 0 0
37 31.6 44.4 30 1 0 0
38 29.3 36.9 29.9 1 0 0
39 28.1 39.2 32 1 0 0
40 26.6 42.6 32 1 0 0
41 30.5 34.2 28.7 1 0 0
42 27.8 34.4 26.6 1 0 0
43 32.8 33.7 30.7 1 0 0
44 35.8 35.6 29.6 1 0 0
45 31.2 33.5 33.3 1 0 0
46 31.8 36.3 34.5 1 0 0
47 32 39.9 34.2 1 0 0
48 29.8 30.7 33 1 0 0
49 27.4 32 31.7 1 0 0
50 25.7 34.5 33.9 1 0 0
ITEM: UNITS
real
ITEM: TIME
300000
ITEM: TIMESTEP
15000
ITEM: NUMBER OF ATOMS
50
ITEM: BOX BOUNDS xy xz yz pp pp pp
0.000000000000e+00 6.251466274261e+01 2.083822250366e+01
0.000000000000e+00 5.893939971924e+01 -2.083822250366e+01
0.000000000000e+00 5.102066993713e+01 2.946964979172e+01
ITEM: ATOMS id xu yu zu type mass q
1 39.8 57.2 27 1 0 0
2 40.2 54.6 28.6 1 0 0
3 36.7 57 26.7 1 0 0
4 34.4 56.1 29.1 1 0 0
5 31.5 53 29.4 1 0 0
6 36.6 55.5 24 1 0 0
7 39.1 56.1 22.2 1 0 0
8 38 52.9 25 1 0 0
9 40.7 53.4 24.7 1 0 0
10 36 52 27.2 1 0 0
11 37.2 50 29.7 1 0 0
12 39.5 49 32.1 1 0 0
13 33.5 51.5 25.3 1 0 0
14 32.7 54 24.9 1 0 0
15 34.9 49.6 23.3 1 0 0
16 35.6 47.5 25.5 1 0 0
17 38.5 47.9 23.4 1 0 0
18 32.8 47.1 26.7 1 0 0
19 32.8 47.8 30.1 1 0 0
20 31.2 46.1 24.2 1 0 0
21 30.2 48.8 23.4 1 0 0
22 27.7 47.7 21.4 1 0 0
23 29 50.2 20.6 1 0 0
24 32.7 43.4 23.6 1 0 0
25 34.4 45.4 21.5 1 0 0
26 32.2 42 26.4 1 0 0
27 34.7 41.5 27.8 1 0 0
28 29.1 42 26.4 1 0 0
29 28.8 40.7 23.6 1 0 0
30 28.6 42.8 20.8 1 0 0
31 30.3 45.7 19 1 0 0
32 30.6 38.3 24.4 1 0 0
33 33.3 37.7 25.3 1 0 0
34 28.9 37.2 26.8 1 0 0
35 26.8 37.2 29.2 1 0 0
36 27 39.7 31.2 1 0 0
37 24.6 38.9 30.2 1 0 0
38 26.3 36.9 25.2 1 0 0
39 24.6 39.5 23.1 1 0 0
40 24.3 42.7 24.7 1 0 0
41 27.6 34.9 23.2 1 0 0
42 28.3 36.3 20.2 1 0 0
43 28.2 32.6 25.2 1 0 0
44 31.5 33.4 25.8 1 0 0
45 25.3 32.1 26.4 1 0 0
46 24.7 34.2 28.7 1 0 0
47 28.2 33.8 29.8 1 0 0
48 23.9 31.2 23.8 1 0 0
49 20.5 32.7 24 1 0 0
50 21.5 36 24.9 1 0 0
ITEM: UNITS
real
ITEM: TIME
400000
ITEM: TIMESTEP
20000
ITEM: NUMBER OF ATOMS
50
ITEM: BOX BOUNDS xy xz yz pp pp pp
0.000000000000e+00 6.246556282043e+01 2.082185506821e+01
0.000000000000e+00 5.889310836792e+01 -2.082185506821e+01
0.000000000000e+00 5.100648403168e+01 2.944650411606e+01
ITEM: ATOMS id xu yu zu type mass q
1 39.8 50.8 37.3 1 0 0
2 37.3 49.6 38.6 1 0 0
3 38.8 52 34.6 1 0 0
4 35.4 52.7 35.5 1 0 0
5 32.4 51.7 33.1 1 0 0
6 40.4 50.2 32.6 1 0 0
7 42.8 50.1 34 1 0 0
8 39.1 47.5 33.6 1 0 0
9 40.4 45.9 31.8 1 0 0
10 36.2 48.3 32.8 1 0 0
11 34.6 46.3 34.5 1 0 0
12 31.3 44.8 32.8 1 0 0
13 36.7 48.6 29.8 1 0 0
14 34.7 50.4 29.4 1 0 0
15 37.3 45.7 29 1 0 0
16 34.7 44.3 30.1 1 0 0
17 34.2 40.8 30.4 1 0 0
18 32.7 46.1 28.5 1 0 0
19 29.5 48.2 29.2 1 0 0
20 33.3 45.2 25.6 1 0 0
21 35.4 46.4 23.8 1 0 0
22 35.8 49.1 21.8 1 0 0
23 36.6 49.5 24.5 1 0 0
24 33 42.1 25.6 1 0 0
25 36.1 40.5 25.9 1 0 0
26 30 41.8 26.2 1 0 0
27 29.6 41.5 29.1 1 0 0
28 28.6 43.7 24.2 1 0 0
29 29.7 42.3 21.6 1 0 0
30 32.7 44 21.4 1 0 0
31 35.9 42.8 21.9 1 0 0
32 28.6 39.5 22.4 1 0 0
33 31 38.1 23.3 1 0 0
34 25.6 40.1 22.3 1 0 0
35 24.3 43.4 22.3 1 0 0
36 22.5 44.5 24.8 1 0 0
37 25.2 45.1 24.6 1 0 0
38 25.4 41.2 19.4 1 0 0
39 26.7 44.2 19.2 1 0 0
40 26.7 47 21.2 1 0 0
41 26.9 39 17.8 1 0 0
42 30.5 38.3 18.2 1 0 0
43 25.1 36.7 18.8 1 0 0
44 26.9 34.6 16.8 1 0 0
45 22.3 37.5 17.7 1 0 0
46 20.6 39.7 18.8 1 0 0
47 21.5 42.5 16.4 1 0 0
48 22.9 37.9 14.7 1 0 0
49 24.5 40.4 14 1 0 0
50 27.9 40.6 13.6 1 0 0
ITEM: UNITS
real
ITEM: TIME
500000
ITEM: TIMESTEP
25000
ITEM: NUMBER OF ATOMS
50
ITEM: BOX BOUNDS xy xz yz pp pp pp
0.000000000000e+00 6.237565040588e+01 2.079188346863e+01
0.000000000000e+00 5.880833625793e+01 -2.079188346863e+01
0.000000000000e+00 5.093854904175e+01 2.940411806107e+01
ITEM: ATOMS id xu yu zu type mass q
1 34.2 42 40.8 1 0 0
2 31.3 41.8 41.7 1 0 0
3 36 43.2 38.6 1 0 0
4 34 45.9 38.2 1 0 0
5 32.1 47.7 35.6 1 0 0
6 36.2 40.9 36.6 1 0 0
7 36.9 38.3 38 1 0 0
8 33.2 40.5 36.1 1 0 0
9 31.6 38.7 34.6 1 0 0
10 32.7 43.3 35 1 0 0
11 29.8 44.4 33.7 1 0 0
12 27.9 46.3 30.9 1 0 0
13 35 43.2 32.8 1 0 0
14 36.9 44.6 34.1 1 0 0
15 34 40.7 31.2 1 0 0
16 31.2 41.7 30.4 1 0 0
17 28.1 40.7 28.3 1 0 0
18 32 44.3 29.1 1 0 0
19 33.4 47.1 30.9 1 0 0
20 33.9 43.3 26.9 1 0 0
21 36.8 42.6 28.2 1 0 0
22 39.5 44 29.7 1 0 0
23 40.1 42.5 27.3 1 0 0
24 31.9 41.5 25.5 1 0 0
25 32.4 38 25.7 1 0 0
26 29.9 43.8 24.9 1 0 0
27 27.4 42.7 24.1 1 0 0
28 31.9 45.4 23.1 1 0 0
29 32.1 43.3 20.8 1 0 0
30 35.3 44.5 20.7 1 0 0
31 37.3 43 23.4 1 0 0
32 29 43.2 20.2 1 0 0
33 27.7 40.7 19.5 1 0 0
34 28.7 46.3 19.7 1 0 0
35 27.8 46.3 23 1 0 0
36 28.2 49.5 22.9 1 0 0
37 29 48.1 25.1 1 0 0
38 30.4 46.4 17.1 1 0 0
39 33 45.1 16.2 1 0 0
40 31.5 46.2 12.5 1 0 0
41 28.8 44.2 15.5 1 0 0
42 30.4 41 14.2 1 0 0
43 26 45.4 15.7 1 0 0
44 24.4 43.5 18.1 1 0 0
45 26.4 48.2 14.4 1 0 0
46 28.4 50 16.1 1 0 0
47 31.1 50.8 18.7 1 0 0
48 27.1 47.3 11.5 1 0 0
49 24.4 46.4 10.5 1 0 0
50 23.9 43.1 12 1 0 0
ITEM: UNITS
real
ITEM: TIME
600000
ITEM: TIMESTEP
30000
ITEM: NUMBER OF ATOMS
50
ITEM: BOX BOUNDS xy xz yz pp pp pp
0.000000000000e+00 6.231228828430e+01 2.077076435089e+01
0.000000000000e+00 5.874859809875e+01 -2.077076435089e+01
0.000000000000e+00 5.089443683624e+01 2.937424898148e+01
ITEM: ATOMS id xu yu zu type mass q
1 27.5 33.7 36.7 1 0 0
2 29 36.3 37.1 1 0 0
3 28.1 33.2 33.7 1 0 0
4 30.7 33.8 32.8 1 0 0
5 30.3 33.8 28.8 1 0 0
6 25.9 34.9 32.4 1 0 0
7 24 34.5 34.2 1 0 0
8 26.5 37.7 33.6 1 0 0
9 23.8 38.7 33.2 1 0 0
10 29.3 38.2 32.5 1 0 0
11 32.1 39.2 32.3 1 0 0
12 35.1 41 32.1 1 0 0
13 28.5 38.1 29.5 1 0 0
14 30.4 37.4 27.7 1 0 0
15 26.7 40.6 29.5 1 0 0
16 28.8 42.6 30.5 1 0 0
17 27.2 44.6 32.8 1 0 0
18 31.2 42.3 28.6 1 0 0
19 33.7 39.2 27.9 1 0 0
20 29.6 42.5 26 1 0 0
21 28 39.6 25.6 1 0 0
22 29.1 40.4 22.4 1 0 0
23 26.3 39.4 22.6 1 0 0
24 28.6 45.4 26 1 0 0
25 25.9 45.5 28.4 1 0 0
26 31.4 46.7 26.2 1 0 0
27 30.8 48.8 28.1 1 0 0
28 32.5 45.4 23.5 1 0 0
29 30.8 47 21.4 1 0 0
30 27.5 46.1 21.7 1 0 0
31 23.6 45.2 22.5 1 0 0
32 31.7 49.8 22.3 1 0 0
33 30 51.6 20.7 1 0 0
34 34.8 49.5 21.9 1 0 0
35 35.5 47.8 25 1 0 0
36 37.4 47 27.5 1 0 0
37 35.1 45.6 27 1 0 0
38 34.9 48.6 19 1 0 0
39 33.9 45.3 18.9 1 0 0
40 32.4 42 18.5 1 0 0
41 33.9 51.1 17.6 1 0 0
42 31.3 50.1 15.4 1 0 0
43 36 53.1 18.7 1 0 0
44 34.4 53.9 21.9 1 0 0
45 38.6 51.7 17.7 1 0 0
46 39.9 49.7 19.3 1 0 0
47 38.1 46.8 21.6 1 0 0
48 38.3 51.4 14.6 1 0 0
49 36.8 53.5 13.6 1 0 0
50 33.2 53.7 13.8 1 0 0
ITEM: UNITS
real
ITEM: TIME
700000
ITEM: TIMESTEP
35000
ITEM: NUMBER OF ATOMS
50
ITEM: BOX BOUNDS xy xz yz pp pp pp
0.000000000000e+00 6.226340293884e+01 2.075446844101e+01
0.000000000000e+00 5.870251178741e+01 -2.075446844101e+01
0.000000000000e+00 5.085230350494e+01 2.935120582581e+01
ITEM: ATOMS id xu yu zu type mass q
1 20.9 32.8 26.1 1 0 0
2 23.9 32.9 26.7 1 0 0
3 20.5 35 24 1 0 0
4 22.3 35.1 21.4 1 0 0
5 25.5 36.9 20.6 1 0 0
6 20.4 37.5 25.9 1 0 0
7 20.6 40.1 25.1 1 0 0
8 23 37.2 27.6 1 0 0
9 22 38.3 30 1 0 0
10 25.1 37.2 25.3 1 0 0
11 27.9 35.2 25.6 1 0 0
12 30.6 37.5 26.7 1 0 0
13 24.2 39.9 24 1 0 0
14 22.4 39.3 22.1 1 0 0
15 24.7 41.5 26.6 1 0 0
16 27.6 40.5 27.1 1 0 0
17 27.6 37.9 29.4 1 0 0
18 28.9 41.3 24.4 1 0 0
19 29.3 39 21.8 1 0 0
20 28.1 44.3 24.5 1 0 0
21 25.9 44 22.3 1 0 0
22 25.2 41.4 20.1 1 0 0
23 23.2 43.5 20.4 1 0 0
24 29.5 44.9 27.2 1 0 0
25 26.3 44.4 28.9 1 0 0
26 32.4 44 26.4 1 0 0
27 33.5 43.5 29.1 1 0 0
28 33.1 46.1 24.2 1 0 0
29 33.3 48.5 26.2 1 0 0
30 30.3 49.5 26.6 1 0 0
31 26.6 48.1 27 1 0 0
32 35.4 47.5 28.3 1 0 0
33 34.2 47.4 31 1 0 0
34 37.8 46.8 26.5 1 0 0
35 37.1 45.9 23.6 1 0 0
36 35.9 47.2 20.9 1 0 0
37 38.6 47.2 21.3 1 0 0
38 38 49.6 25.2 1 0 0
39 35.9 50.8 22.9 1 0 0
40 33.7 53.5 22.6 1 0 0
41 38.9 51.4 27.5 1 0 0
42 35.7 52 28.7 1 0 0
43 41.6 49.9 28.1 1 0 0
44 39.7 48.1 30.3 1 0 0
45 43.2 50.5 25.6 1 0 0
46 42.7 47.9 23.5 1 0 0
47 41.4 44.4 24.4 1 0 0
48 43.1 53.6 25.6 1 0 0
49 44.6 53.5 22.7 1 0 0
50 42.6 52.4 20.6 1 0 0
ITEM: UNITS
real
ITEM: TIME
800000
ITEM: TIMESTEP
40000
ITEM: NUMBER OF ATOMS
50
ITEM: BOX BOUNDS xy xz yz pp pp pp
0.000000000000e+00 6.220460891724e+01 2.073487043381e+01
0.000000000000e+00 5.864707946777e+01 -2.073487043381e+01
0.000000000000e+00 5.081577301025e+01 2.932348966599e+01
ITEM: ATOMS id xu yu zu type mass q
1 20.2 42.5 14.2 1 0 0
2 20.7 39.6 15 1 0 0
3 20.7 44.8 16.2 1 0 0
4 23.2 46.6 16.3 1 0 0
5 26.7 47.7 17 1 0 0
6 20 43.5 18.9 1 0 0
7 18.5 44.6 21 1 0 0
8 22.1 41.2 19 1 0 0
9 20.6 39 19.4 1 0 0
10 24.7 42.7 18.3 1 0 0
11 27.6 42.1 16.3 1 0 0
12 31 40.8 17.7 1 0 0
13 24.4 44.7 20.6 1 0 0
14 23 47 20.5 1 0 0
15 24.6 42.8 23.1 1 0 0
16 27.2 41.3 22.2 1 0 0
17 25.8 38.2 21.4 1 0 0
18 29 43.8 22.4 1 0 0
19 29.6 44.8 18.8 1 0 0
20 28.5 44.9 25.3 1 0 0
21 26 47.2 24.8 1 0 0
22 26.3 48.9 27.7 1 0 0
23 24.7 46.4 27.8 1 0 0
24 29.3 42.2 26.8 1 0 0
25 28.6 38.1 27.1 1 0 0
26 32.1 41.9 25.6 1 0 0
27 32.1 39.1 24.6 1 0 0
28 33.1 44.8 26.1 1 0 0
29 32.8 44.8 29.2 1 0 0
30 30.1 46.9 29.4 1 0 0
31 30.6 49 26.1 1 0 0
32 35 42.7 29.6 1 0 0
33 33.7 40.1 29.1 1 0 0
34 37.5 44.3 28.8 1 0 0
35 37.1 42.7 25.7 1 0 0
36 38.4 41 23.3 1 0 0
37 36.5 39.9 24.8 1 0 0
38 37.3 46.3 31.2 1 0 0
39 39.2 49.2 30.6 1 0 0
40 39.5 51.1 33.9 1 0 0
41 37.5 44.3 33.5 1 0 0
42 34.3 42.6 34.1 1 0 0
43 40.4 43.2 33.1 1 0 0
44 40.8 40.9 30.4 1 0 0
45 41.9 45.9 33.1 1 0 0
46 43.4 46.7 30.1 1 0 0
47 41.6 46.4 26.9 1 0 0
48 41.1 46.7 36 1 0 0
49 43.9 45.7 38 1 0 0
50 43.5 42.7 36.9 1 0 0
ITEM: UNITS
real
ITEM: TIME
900000
ITEM: TIMESTEP
45000
ITEM: NUMBER OF ATOMS
50
ITEM: BOX BOUNDS xy xz yz pp pp pp
0.000000000000e+00 6.211290836334e+01 2.070430278778e+01
0.000000000000e+00 5.856062412262e+01 -2.070430278778e+01
0.000000000000e+00 5.079299449921e+01 2.928026199341e+01
ITEM: ATOMS id xu yu zu type mass q
1 29.4 55.8 14.4 1 0 0
2 27.2 55.8 12.2 1 0 0
3 27.6 55 16.8 1 0 0
4 29 56.1 19.3 1 0 0
5 30.6 54.6 22.8 1 0 0
6 27.2 52 16.2 1 0 0
7 24.8 51.9 15.1 1 0 0
8 30.1 50.9 16.4 1 0 0
9 30.4 51.9 13.6 1 0 0
10 30.6 51.6 19.4 1 0 0
11 33.1 50.9 21.8 1 0 0
12 34.7 48.5 24.2 1 0 0
13 28.3 49.8 20.4 1 0 0
14 27.8 50.6 22.9 1 0 0
15 28.9 47.1 19.1 1 0 0
16 31.6 46.6 20.6 1 0 0
17 34 47.6 18.1 1 0 0
18 30.5 47 23.4 1 0 0
19 31.3 47.5 27.1 1 0 0
20 28.6 44.5 23.4 1 0 0
21 25.9 46.4 22.2 1 0 0
22 23.7 44.5 20.4 1 0 0
23 24.8 46.8 19 1 0 0
24 30.6 42.2 23.3 1 0 0
25 27.8 40 22.4 1 0 0
26 32.6 42.9 25.5 1 0 0
27 35.5 42.5 25.3 1 0 0
28 30.6 42.8 27.9 1 0 0
29 30.2 39.8 27.5 1 0 0
30 27.3 39.7 26.5 1 0 0
31 25.6 42.9 26.5 1 0 0
32 33.2 39.3 27.8 1 0 0
33 33.8 37.2 25.9 1 0 0
34 33.8 39.9 30.8 1 0 0
35 35.6 42.3 29.2 1 0 0
36 33.7 44.9 29.3 1 0 0
37 36.3 45.1 29.9 1 0 0
38 32 37.7 32.1 1 0 0
39 30.5 37.4 34.9 1 0 0
40 30.8 35.8 38.4 1 0 0
41 33.7 35.3 31.3 1 0 0
42 30.6 33 30.7 1 0 0
43 36.4 36.1 32.6 1 0 0
44 37.4 37.4 29.4 1 0 0
45 35.6 36.3 35.6 1 0 0
46 34.4 39.1 36.6 1 0 0
47 32.8 41.7 35 1 0 0
48 34.5 33.4 36 1 0 0
49 34.7 31.7 33.5 1 0 0
50 33.7 29.6 30.8 1 0 0
ITEM: UNITS
real
ITEM: TIME
1000000
ITEM: TIMESTEP
50000
ITEM: NUMBER OF ATOMS
50
ITEM: BOX BOUNDS xy xz yz pp pp pp
0.000000000000e+00 6.200408458710e+01 2.066802978516e+01
0.000000000000e+00 5.845802307129e+01 -2.066802978516e+01
0.000000000000e+00 5.084049701691e+01 2.922896146774e+01
ITEM: ATOMS id xu yu zu type mass q
1 36.4 58 29.2 1 0 0
2 33.4 57.7 28.6 1 0 0
3 37.5 56.2 26.9 1 0 0
4 35.9 55.4 24.1 1 0 0
5 33.6 52 23.1 1 0 0
6 38.5 53.7 28.3 1 0 0
7 40.5 53.2 26.4 1 0 0
8 35.9 53.1 29.9 1 0 0
9 34.6 55.3 31.8 1 0 0
10 34.1 52.7 27.4 1 0 0
11 31 52.2 27.6 1 0 0
12 28.3 49.7 27.8 1 0 0
13 36 50.5 26.3 1 0 0
14 36.4 48.7 24.4 1 0 0
15 35.8 48.6 28.7 1 0 0
16 32.7 48.3 28.2 1 0 0
17 32.5 48 31.6 1 0 0
18 32.4 48 25.2 1 0 0
19 29 47.4 23.9 1 0 0
20 34.2 45.4 24.9 1 0 0
21 34 44.8 22.1 1 0 0
22 33.6 46.3 19.1 1 0 0
23 31.9 47.3 21.2 1 0 0
24 33 43.8 27.3 1 0 0
25 35.6 43.8 29.4 1 0 0
26 30 43.9 26.4 1 0 0
27 27.4 44.5 27.5 1 0 0
28 30.4 42.7 23.5 1 0 0
29 31.9 40.2 24.6 1 0 0
30 34.6 39.9 27 1 0 0
31 35.2 36.9 29.1 1 0 0
32 29.5 39.4 26.4 1 0 0
33 30.4 38.9 29.2 1 0 0
34 27.4 39.1 24.2 1 0 0
35 26.6 42.5 23 1 0 0
36 27.1 42.5 19.9 1 0 0
37 24.6 42.9 20.9 1 0 0
38 28.9 37.1 22.4 1 0 0
39 28.2 36.8 19.4 1 0 0
40 27.4 33.4 18.2 1 0 0
41 29.3 34.7 24.3 1 0 0
42 32.2 35.7 25.9 1 0 0
43 26.4 34.1 25.1 1 0 0
44 25.5 36.6 27 1 0 0
45 25 33.3 22.4 1 0 0
46 23.5 36 21 1 0 0
47 22.8 38.8 23.1 1 0 0
48 26.5 30.7 21.8 1 0 0
49 24.8 27.8 23.3 1 0 0
50 22.2 25.4 24.8 1 0 0
